Program Version,EnergyPlus, Version 8.6.0-198c6a3cff, YMD=2017.09.20 10:53
1,5,Environment Title[],Latitude[deg],Longitude[deg],Time Zone[],Elevation[m]
2,6,Day of Simulation[],Month[],Day of Month[],DST Indicator[1=yes 0=no],Hour[],StartMinute[],EndMinute[],DayType
3,3,Cumulative Day of Simulation[],Month[],Day of Month[],DST Indicator[1=yes 0=no],DayType  ! When Daily Report Variables Requested
4,2,Cumulative Days of Simulation[],Month[]  ! When Monthly Report Variables Requested
5,1,Cumulative Days of Simulation[] ! When Run Period Report Variables Requested
651,1,MAIN COOLING COIL 1,Cooling Coil Total Cooling Rate [W] !Hourly
676,1,SUPPLY FAN 1,Fan Electric Power [W] !Hourly
801,1,CENTRAL CHILLER,Chiller Electric Power [W] !Hourly
835,1,CENTRAL TOWER,Cooling Tower Fan Electric Power [W] !Hourly
920,1,HW CIRC PUMP,Pump Electric Power [W] !Hourly
921,1,HW CIRC PUMP,Pump Shaft Power [W] !Hourly
923,1,CW CIRC PUMP,Pump Electric Power [W] !Hourly
924,1,CW CIRC PUMP,Pump Shaft Power [W] !Hourly
926,1,COND CIRC PUMP,Pump Electric Power [W] !Hourly
927,1,COND CIRC PUMP,Pump Shaft Power [W] !Hourly
End of Data Dictionary
1,CHICAGO_IL_USA ANNUAL HEATING 99% DESIGN CONDITIONS DB,   1.37, 103.98,   8.00,  16.00
2,1, 1,21, 0, 1, 0.00,60.00,WinterDesignDay
651,479.7563218540517
676,639.9489627998179
801,477.869018694737
835,13.125558446864999
920,98.90535153747624
921,89.01481638372865
923,13.892821617009993
924,12.503539455308996
926,536.7294863510859
927,483.0565377159773
2,1, 1,21, 0, 2, 0.00,60.00,WinterDesignDay
651,477.3320616970634
676,639.9633990256493
801,477.34678731055058
835,13.09233552647828
920,98.90528953493906
921,89.01476058144515
923,13.843773605579252
924,12.459396245021326
926,536.7294863510859
927,483.0565377159773
2,1, 1,21, 0, 3, 0.00,60.00,WinterDesignDay
651,475.7782167055973
676,639.9633990256493
801,476.99017466030116
835,13.070010751215764
920,98.90524039075348
921,89.01471635167813
923,13.815838567150316
924,12.434254710435285
926,536.7294863510859
927,483.0565377159773
2,1, 1,21, 0, 4, 0.00,60.00,WinterDesignDay
651,474.9056312885227
676,639.9778352514809
801,476.7285100862948
835,13.053430222607338
920,98.92187896655725
921,89.02969106990152
923,13.797008344030849
924,12.417307509627762
926,536.7294863510859
927,483.0565377159773
2,1, 1,21, 0, 5, 0.00,60.00,WinterDesignDay
651,474.3271076929187
676,639.9778352514809
801,476.5546217130936
835,13.042503402154902
920,98.9218890971183
921,89.02970018740645
923,13.786738699355086
924,12.408064829419578
926,536.7294863510859
927,483.0565377159773
2,1, 1,21, 0, 6, 0.00,60.00,WinterDesignDay
651,473.95773145792267
676,639.9778352514809
801,476.4276205246947
835,13.034479161708627
920,98.91354807658797
921,89.02219326892917
923,13.77981574385178
924,12.401834169466602
926,536.7294863510859
927,483.0565377159773
2,1, 1,21, 0, 7, 0.00,60.00,WinterDesignDay
651,473.70854406671836
676,639.9778352514809
801,476.3355418801107
835,13.028697839477778
920,98.92187914464927
921,89.02969123018433
923,13.77514469256308
924,12.39763022330677
926,536.7294863510859
927,483.0565377159773
2,1, 1,21, 0, 8, 0.00,60.00,WinterDesignDay
651,0.0
676,654.5163423600796
801,0.0
835,0.0
920,212.6698218717195
921,191.40283968454757
923,0.0
924,0.0
926,0.0
927,0.0
2,1, 1,21, 0, 9, 0.00,60.00,WinterDesignDay
651,0.0
676,654.5163423600796
801,0.0
835,0.0
920,212.9320172894413
921,191.63881556049717
923,0.0
924,0.0
926,0.0
927,0.0
2,1, 1,21, 0,10, 0.00,60.00,WinterDesignDay
651,0.0
676,631.9247489062477
801,0.0
835,0.0
920,197.26416518987103
921,177.53774867088388
923,0.0
924,0.0
926,0.0
927,0.0
2,1, 1,21, 0,11, 0.00,60.00,WinterDesignDay
651,0.0
676,627.2074164666724
801,0.0
835,0.0
920,175.15472098720617
921,157.63924888848556
923,0.0
924,0.0
926,0.0
927,0.0
2,1, 1,21, 0,12, 0.00,60.00,WinterDesignDay
651,0.0
676,627.2074164666724
801,0.0
835,0.0
920,170.98460674362705
921,153.88614606926434
923,0.0
924,0.0
926,0.0
927,0.0
2,1, 1,21, 0,13, 0.00,60.00,WinterDesignDay
651,0.0
676,627.2074164666724
801,0.0
835,0.0
920,173.7001644038929
921,156.33014796350359
923,0.0
924,0.0
926,0.0
927,0.0
2,1, 1,21, 0,14, 0.00,60.00,WinterDesignDay
651,0.0
676,627.2074164666724
801,0.0
835,0.0
920,184.5635134680147
921,166.10716212121324
923,0.0
924,0.0
926,0.0
927,0.0
2,1, 1,21, 0,15, 0.00,60.00,WinterDesignDay
651,0.0
676,627.2074164666724
801,0.0
835,0.0
920,175.10735344345935
921,157.59661809911339
923,0.0
924,0.0
926,0.0
927,0.0
2,1, 1,21, 0,16, 0.00,60.00,WinterDesignDay
651,0.0
676,627.2074164666724
801,0.0
835,0.0
920,171.7107837157789
921,154.539705344201
923,0.0
924,0.0
926,0.0
927,0.0
2,1, 1,21, 0,17, 0.00,60.00,WinterDesignDay
651,0.0
676,627.2074164666724
801,0.0
835,0.0
920,173.1963315209712
921,155.87669836887413
923,0.0
924,0.0
926,0.0
927,0.0
2,1, 1,21, 0,18, 0.00,60.00,WinterDesignDay
651,0.0
676,644.6971330894488
801,0.0
835,0.0
920,210.50872886679336
921,189.45785598011404
923,0.0
924,0.0
926,0.0
927,0.0
2,1, 1,21, 0,19, 0.00,60.00,WinterDesignDay
651,0.0
676,651.7641045673447
801,0.0
835,0.0
920,211.88307901245904
921,190.69477111121319
923,0.0
924,0.0
926,0.0
927,0.0
2,1, 1,21, 0,20, 0.00,60.00,WinterDesignDay
651,523.0324358570202
676,639.511967731664
801,482.5821123056358
835,13.367821450106162
920,98.73635062937386
921,88.86271556643647
923,14.735483996888656
924,13.26193559719979
926,536.7294863510859
927,483.0565377159773
2,1, 1,21, 0,21, 0.00,60.00,WinterDesignDay
651,517.0369321856768
676,639.7470706247445
801,482.53856011488167
835,13.409029513579533
920,98.81450334606065
921,88.93305301145459
923,14.592205116160273
924,13.132984604544248
926,536.7294863510859
927,483.0565377159773
2,1, 1,21, 0,22, 0.00,60.00,WinterDesignDay
651,500.9909729146206
676,639.8335512242039
801,480.96484544261497
835,13.319591344932613
920,98.84752255901653
921,88.96277030311488
923,14.30148681365352
924,12.871338132288166
926,536.7294863510859
927,483.0565377159773
2,1, 1,21, 0,23, 0.00,60.00,WinterDesignDay
651,490.442557731661
676,639.9056736845918
801,479.5903648739936
835,13.233854793739708
920,98.86392113809196
921,88.97752902428276
923,14.096390633335993
924,12.686751570002395
926,536.7294863510859
927,483.0565377159773
2,1, 1,21, 0,24, 0.00,60.00,WinterDesignDay
651,483.9262581194384
676,639.9345265739865
801,478.59574360760646
835,13.170966078696223
920,98.88872824226189
921,88.9998554180357
923,13.970768611283065
924,12.573691750154758
926,536.7294863510859
927,483.0565377159773
1,CHICAGO_IL_USA ANNUAL COOLING 1% DESIGN CONDITIONS DB/MCWB,   1.37, 103.98,   8.00,  16.00
2,1, 7,21, 0, 1, 0.00,60.00,SummerDesignDay
651,8051.195276411018
676,627.2074164666724
801,2116.910072931541
835,516.2774812030117
920,75.47371846846214
921,67.92634662161594
923,340.44375304573938
924,306.39937774116546
926,536.7294863510859
927,483.0565377159773
2,1, 7,21, 0, 2, 0.00,60.00,SummerDesignDay
651,7865.694957598392
676,627.2074164666724
801,2070.8235964473374
835,516.2774812030117
920,75.88040277332823
921,68.2923624959954
923,340.44375304573938
924,306.39937774116546
926,536.7294863510859
927,483.0565377159773
2,1, 7,21, 0, 3, 0.00,60.00,SummerDesignDay
651,7715.893317902715
676,627.2074164666724
801,2034.135093837398
835,516.2774812030117
920,76.23429104374145
921,68.6108619393673
923,340.44375304573938
924,306.39937774116546
926,536.7294863510859
927,483.0565377159773
2,1, 7,21, 0, 4, 0.00,60.00,SummerDesignDay
651,7597.206410570548
676,627.2074164666724
801,2005.1076240112413
835,516.2774812030117
920,76.54193917172128
921,68.88774525454915
923,340.44375304573938
924,306.39937774116546
926,536.7294863510859
927,483.0565377159773
2,1, 7,21, 0, 5, 0.00,60.00,SummerDesignDay
651,7502.30111536447
676,627.2074164666724
801,1981.981281028721
835,516.2774812030117
920,76.79574298423158
921,69.11616868580842
923,340.44375304573938
924,306.39937774116546
926,536.7294863510859
927,483.0565377159773
2,1, 7,21, 0, 6, 0.00,60.00,SummerDesignDay
651,7420.155419662329
676,627.2074164666724
801,1963.165856423833
835,516.2774812030117
920,76.9862911328283
921,69.2876620195455
923,340.44375304573938
924,306.39937774116546
926,536.7294863510859
927,483.0565377159773
2,1, 7,21, 0, 7, 0.00,60.00,SummerDesignDay
651,7340.244056873439
676,627.2074164666724
801,1947.274009091847
835,516.2774812030117
920,77.19172942930898
921,69.47255648637808
923,340.44375304573938
924,306.39937774116546
926,536.7294863510859
927,483.0565377159773
2,1, 7,21, 0, 8, 0.00,60.00,SummerDesignDay
651,18244.146025789803
676,627.2074164666724
801,4410.052703323916
835,516.2774812030117
920,59.80589022735711
921,53.825301204621407
923,318.0734269568549
924,286.2660842611694
926,536.7294863510859
927,483.0565377159773
2,1, 7,21, 0, 9, 0.00,60.00,SummerDesignDay
651,16680.58765116926
676,627.2074164666724
801,4586.70289515187
835,516.2774812030117
920,36.850814406259939
921,33.16573296563395
923,223.68346969683845
924,201.31512272715464
926,536.7294863510859
927,483.0565377159773
2,1, 7,21, 0,10, 0.00,60.00,SummerDesignDay
651,24621.565228570737
676,769.4894814192307
801,6613.102171214393
835,516.2774812030116
920,51.58550975439096
921,46.42695877895187
923,313.23114878188695
924,281.9080339036982
926,536.7294863510859
927,483.0565377159773
2,1, 7,21, 0,11, 0.00,60.00,SummerDesignDay
651,33752.498750433944
676,1132.369727370929
801,9406.661911208406
835,516.2774812030117
920,48.834899468843598
921,43.95140952195923
923,326.1747730593359
924,293.55729575340237
926,536.7294863510859
927,483.0565377159773
2,1, 7,21, 0,12, 0.00,60.00,SummerDesignDay
651,37205.23276376756
676,1241.6211991821804
801,10895.503554828249
835,516.2774812030117
920,46.812193013509098
921,42.13097371215819
923,334.4906369367857
924,301.04157324310708
926,536.7294863510859
927,483.0565377159773
2,1, 7,21, 0,13, 0.00,60.00,SummerDesignDay
651,37220.90022745844
676,1251.8641552396039
801,11042.464437368484
835,516.2774812030117
920,40.901720346751329
921,36.8115483120762
923,340.44375304573938
924,306.39937774116546
926,536.7294863510859
927,483.0565377159773
2,1, 7,21, 0,14, 0.00,60.00,SummerDesignDay
651,36371.755820478415
676,1121.1586036964438
801,11074.282988829822
835,516.2774812030117
920,38.94994259991145
921,35.05494833992031
923,340.44375304573938
924,306.39937774116546
926,536.7294863510859
927,483.0565377159773
2,1, 7,21, 0,15, 0.00,60.00,SummerDesignDay
651,37142.56750755464
676,1205.1999099299917
801,11088.493882063247
835,516.2774812030117
920,39.19933729762633
921,35.2794035678637
923,340.44375304573938
924,306.39937774116546
926,536.7294863510859
927,483.0565377159773
2,1, 7,21, 0,16, 0.00,60.00,SummerDesignDay
651,37101.072930106704
676,1232.1435447619524
801,11078.941400934846
835,516.2774812030117
920,35.61296259017986
921,32.05166633116188
923,340.44375304573938
924,306.39937774116546
926,536.7294863510859
927,483.0565377159773
2,1, 7,21, 0,17, 0.00,60.00,SummerDesignDay
651,36579.80822458733
676,1174.384678266489
801,11049.89233698808
835,516.2774812030117
920,33.96099436966718
921,30.56489493270047
923,340.44375304573938
924,306.39937774116546
926,536.7294863510859
927,483.0565377159773
2,1, 7,21, 0,18, 0.00,60.00,SummerDesignDay
651,24298.11888325767
676,687.5797056952675
801,7652.644896575434
835,516.2774812030117
920,39.89965392846397
921,35.90968853561757
923,322.4960586122042
924,290.24645275098376
926,536.7294863510859
927,483.0565377159773
2,1, 7,21, 0,19, 0.00,60.00,SummerDesignDay
651,21697.088739317423
676,650.3240922566785
801,5849.010549904728
835,516.2774812030117
920,46.053457920340459
921,41.44811212830641
923,340.44375304573938
924,306.39937774116546
926,536.7294863510859
927,483.0565377159773
2,1, 7,21, 0,20, 0.00,60.00,SummerDesignDay
651,10021.752808430841
676,627.2074164666724
801,2894.52273334771
835,516.2774812030117
920,59.18697412634939
921,53.26827671371445
923,340.44375304573938
924,306.39937774116546
926,536.7294863510859
927,483.0565377159773
2,1, 7,21, 0,21, 0.00,60.00,SummerDesignDay
651,9479.216623259244
676,627.2074164666724
801,2478.8655547093554
835,516.2774812030117
920,63.930170897514617
921,57.537153807763157
923,340.44375304573938
924,306.39937774116546
926,536.7294863510859
927,483.0565377159773
2,1, 7,21, 0,22, 0.00,60.00,SummerDesignDay
651,8965.786438222154
676,627.2074164666724
801,2347.3994585539954
835,516.2774812030117
920,68.1053508223123
921,61.29481574008108
923,340.44375304573938
924,306.39937774116546
926,536.7294863510859
927,483.0565377159773
2,1, 7,21, 0,23, 0.00,60.00,SummerDesignDay
651,8580.954593024582
676,627.2074164666724
801,2250.148850043026
835,516.2774812030117
920,71.71638563537978
921,64.5447470718418
923,340.44375304573938
924,306.39937774116546
926,536.7294863510859
927,483.0565377159773
2,1, 7,21, 0,24, 0.00,60.00,SummerDesignDay
651,8282.896627890692
676,627.2074164666724
801,2175.141779146476
835,516.2774812030117
920,74.98290910105213
921,67.48461819094693
923,340.44375304573938
924,306.39937774116546
926,536.7294863510859
927,483.0565377159773
1,SINGAPORE - SGP IWEC Data WMO#=486980,   1.37, 103.98,   8.00,  16.00
2,1, 1, 1, 0, 1, 0.00,60.00,Monday
651,8696.599021486374
676,627.2074164666724
801,2331.6855923794724
835,516.2774812030117
920,64.18240341024195
921,57.764163069217769
923,340.44375304573938
924,306.39937774116546
926,536.7294863510859
927,483.0565377159773
2,1, 1, 1, 0, 2, 0.00,60.00,Monday
651,8738.955033594199
676,627.2074164666724
801,2342.321532387778
835,516.2774812030117
920,64.57465808847654
921,58.11719227962889
923,340.44375304573938
924,306.39937774116546
926,536.7294863510859
927,483.0565377159773
2,1, 1, 1, 0, 3, 0.00,60.00,Monday
651,8570.06661223716
676,627.2074164666724
801,2305.697779709634
835,516.2774812030117
920,64.9390934519939
921,58.44518410679451
923,340.44375304573938
924,306.39937774116546
926,536.7294863510859
927,483.0565377159773
2,1, 1, 1, 0, 4, 0.00,60.00,Monday
651,8303.2975072072
676,627.2074164666724
801,2241.11720496898
835,516.2774812030117
920,65.35885725954319
921,58.82297153358886
923,340.44375304573938
924,306.39937774116546
926,536.7294863510859
927,483.0565377159773
2,1, 1, 1, 0, 5, 0.00,60.00,Monday
651,8031.185914844861
676,627.2074164666724
801,2177.210923676512
835,516.2774812030117
920,65.49218056743489
921,58.94296251069139
923,340.44375304573938
924,306.39937774116546
926,536.7294863510859
927,483.0565377159773
2,1, 1, 1, 0, 6, 0.00,60.00,Monday
651,7844.4077759407955
676,627.2074164666724
801,2129.3598277152096
835,516.2774812030117
920,65.4283243029656
921,58.88549187266906
923,340.44375304573938
924,306.39937774116546
926,536.7294863510859
927,483.0565377159773
2,1, 1, 1, 0, 7, 0.00,60.00,Monday
651,7709.2504073957925
676,627.2074164666724
801,2096.294109776945
835,516.2774812030117
920,65.25837039249224
921,58.732533353243017
923,340.44375304573938
924,306.39937774116546
926,536.7294863510859
927,483.0565377159773
2,1, 1, 1, 0, 8, 0.00,60.00,Monday
651,20256.2500406192
676,634.2832483161338
801,5274.941835864221
835,516.2774812030117
920,74.73011167777485
921,67.25710050999735
923,250.91759453683913
924,225.82583508315518
926,536.7294863510859
927,483.0565377159773
2,1, 1, 1, 0, 9, 0.00,60.00,Monday
651,22889.307378068654
676,627.2074164666724
801,6170.289495108017
835,516.2774812030117
920,57.343410587265648
921,51.60906952853909
923,340.44375304573938
924,306.39937774116546
926,536.7294863510859
927,483.0565377159773
2,1, 1, 1, 0,10, 0.00,60.00,Monday
651,23192.578032817084
676,627.2074164666724
801,6522.782052526175
835,516.2774812030116
920,27.338037462683688
921,24.60423371641532
923,278.89988205885558
924,251.00989385296999
926,536.7294863510859
927,483.0565377159773
2,1, 1, 1, 0,11, 0.00,60.00,Monday
651,23285.602025174037
676,636.5909688449173
801,6500.7853568662285
835,516.2774812030117
920,27.571731461688797
921,24.814558315519919
923,316.2881893122241
924,284.6593703810017
926,536.7294863510859
927,483.0565377159773
2,1, 1, 1, 0,12, 0.00,60.00,Monday
651,24912.695904414024
676,658.5684600185685
801,6846.696395532392
835,516.2774812030117
920,28.020658962847067
921,25.21859306656236
923,340.44375304573938
924,306.39937774116546
926,536.7294863510859
927,483.0565377159773
2,1, 1, 1, 0,13, 0.00,60.00,Monday
651,24927.604226013955
676,668.846852721672
801,6918.071466543748
835,516.2774812030117
920,26.76459633713084
921,24.08813670341776
923,340.44375304573938
924,306.39937774116546
926,536.7294863510859
927,483.0565377159773
2,1, 1, 1, 0,14, 0.00,60.00,Monday
651,21668.335430110375
676,647.7072598289154
801,5925.835355349224
835,516.2774812030117
920,23.43235688685049
921,21.08912119816544
923,319.28463019172576
924,287.3561671725532
926,536.7294863510859
927,483.0565377159773
2,1, 1, 1, 0,15, 0.00,60.00,Monday
651,25101.40755885841
676,671.9833254487701
801,6806.801515942971
835,516.2774812030117
920,26.619502364042586
921,23.957552127638324
923,340.44375304573938
924,306.39937774116546
926,536.7294863510859
927,483.0565377159773
2,1, 1, 1, 0,16, 0.00,60.00,Monday
651,27594.88201866862
676,682.7056136514411
801,7680.339464397947
835,516.2774812030117
920,25.980375854454285
921,23.38233826900886
923,339.93327992437687
924,305.9399519319392
926,536.7294863510859
927,483.0565377159773
2,1, 1, 1, 0,17, 0.00,60.00,Monday
651,27946.874967628013
676,668.7172307223203
801,7950.586359805523
835,516.2774812030117
920,24.610487627814025
921,22.14943886503262
923,333.8429509195118
924,300.4586558275607
926,536.7294863510859
927,483.0565377159773
2,1, 1, 1, 0,18, 0.00,60.00,Monday
651,24480.82326662364
676,627.2074164666724
801,6994.898512098037
835,516.2774812030117
920,21.555185814069053
921,19.399667232662148
923,321.8737173420755
924,289.6863456078679
926,536.7294863510859
927,483.0565377159773
2,1, 1, 1, 0,19, 0.00,60.00,Monday
651,24991.535461207746
676,627.2074164666724
801,6914.793753115117
835,516.2774812030117
920,31.539162069228316
921,28.38524586230548
923,340.44375304573938
924,306.39937774116546
926,536.7294863510859
927,483.0565377159773
2,1, 1, 1, 0,20, 0.00,60.00,Monday
651,10687.770801354734
676,627.2074164666724
801,3255.880637112663
835,516.2774812030117
920,46.1313462000525
921,41.51821158004725
923,322.92588192991567
924,290.63329373692405
926,536.7294863510859
927,483.0565377159773
2,1, 1, 1, 0,21, 0.00,60.00,Monday
651,10096.950117785627
676,627.2074164666724
801,2692.818466754083
835,516.2774812030117
920,55.55448390266425
921,49.99903551239783
923,340.44375304573938
924,306.39937774116546
926,536.7294863510859
927,483.0565377159773
2,1, 1, 1, 0,22, 0.00,60.00,Monday
651,9505.020903622628
676,627.2074164666724
801,2543.041031342955
835,516.2774812030117
920,60.829234462424498
921,54.74631101618204
923,340.44375304573938
924,306.39937774116546
926,536.7294863510859
927,483.0565377159773
2,1, 1, 1, 0,23, 0.00,60.00,Monday
651,9082.513044102701
676,627.2074164666724
801,2433.198584277809
835,516.2774812030117
920,63.86115756621927
921,57.47504180959734
923,340.44375304573938
924,306.39937774116546
926,536.7294863510859
927,483.0565377159773
2,1, 1, 1, 0,24, 0.00,60.00,Monday
651,8779.869553478049
676,627.2074164666724
801,2355.7461481895048
835,516.2774812030117
920,63.96247711268685
921,57.56622940141816
923,340.44375304573938
924,306.39937774116546
926,536.7294863510859
927,483.0565377159773
2,2, 1, 2, 0, 1, 0.00,60.00,Tuesday
651,8575.728021320807
676,627.2074164666724
801,2305.5322260602306
835,516.2774812030117
920,64.13406633124652
921,57.72065969812187
923,340.44375304573938
924,306.39937774116546
926,536.7294863510859
927,483.0565377159773
2,2, 1, 2, 0, 2, 0.00,60.00,Tuesday
651,8459.433826139226
676,627.2074164666724
801,2275.7784388983023
835,516.2774812030117
920,64.52075224824113
921,58.068677023417027
923,340.44375304573938
924,306.39937774116546
926,536.7294863510859
927,483.0565377159773
2,2, 1, 2, 0, 3, 0.00,60.00,Tuesday
651,8259.097236604963
676,627.2074164666724
801,2233.362117075256
835,516.2774812030117
920,64.87004133960648
921,58.38303720564584
923,340.44375304573938
924,306.39937774116546
926,536.7294863510859
927,483.0565377159773
2,2, 1, 2, 0, 4, 0.00,60.00,Tuesday
651,7996.868866199158
676,627.2074164666724
801,2172.347519609339
835,516.2774812030117
920,65.01957255050812
921,58.51761529545731
923,340.44375304573938
924,306.39937774116546
926,536.7294863510859
927,483.0565377159773
2,2, 1, 2, 0, 5, 0.00,60.00,Tuesday
651,7789.917976432723
676,627.2074164666724
801,2123.8098612620593
835,516.2774812030117
920,65.13283602289549
921,58.61955242060594
923,340.44375304573938
924,306.39937774116546
926,536.7294863510859
927,483.0565377159773
2,2, 1, 2, 0, 6, 0.00,60.00,Tuesday
651,7687.243300464533
676,627.2074164666724
801,2097.7229872215776
835,516.2774812030117
920,65.22904715515591
921,58.70614243964031
923,340.44375304573938
924,306.39937774116546
926,536.7294863510859
927,483.0565377159773
2,2, 1, 2, 0, 7, 0.00,60.00,Tuesday
651,7626.468925580254
676,627.2074164666724
801,2086.5881407268184
835,516.2774812030117
920,65.19139369607369
921,58.672254326466319
923,340.44375304573938
924,306.39937774116546
926,536.7294863510859
927,483.0565377159773
2,2, 1, 2, 0, 8, 0.00,60.00,Tuesday
651,22227.850359480206
676,633.9777487534351
801,5893.627998758413
835,516.2774812030117
920,72.50378947125584
921,65.25341052413025
923,259.0447286762885
924,233.14025580865965
926,536.7294863510859
927,483.0565377159773
2,2, 1, 2, 0, 9, 0.00,60.00,Tuesday
651,24761.358459978277
676,627.2074164666724
801,6855.205922021706
835,516.2774812030117
920,54.369777494208189
921,48.93279974478736
923,340.44375304573938
924,306.39937774116546
926,536.7294863510859
927,483.0565377159773
2,2, 1, 2, 0,10, 0.00,60.00,Tuesday
651,24678.64712588242
676,627.2074164666724
801,7175.025595584993
835,516.2774812030116
920,24.54305723175108
921,22.088751508575979
923,279.4997034772977
924,251.54973312956794
926,536.7294863510859
927,483.0565377159773
2,2, 1, 2, 0,11, 0.00,60.00,Tuesday
651,24551.62051829709
676,636.6444393707139
801,6969.983394189177
835,516.2774812030117
920,26.495695329677763
921,23.846125796709989
923,319.9314272015455
924,287.9382844813909
926,536.7294863510859
927,483.0565377159773
2,2, 1, 2, 0,12, 0.00,60.00,Tuesday
651,26838.58130257705
676,661.188514287817
801,7496.573092031034
835,516.2774812030117
920,26.227432315169066
921,23.604689083652159
923,340.44375304573938
924,306.39937774116546
926,536.7294863510859
927,483.0565377159773
2,2, 1, 2, 0,13, 0.00,60.00,Tuesday
651,28363.00661411775
676,677.1028428449607
801,8139.828684434036
835,516.2774812030117
920,24.488285459197344
921,22.039456913277609
923,332.9716839998902
924,299.6745155999012
926,536.7294863510859
927,483.0565377159773
2,2, 1, 2, 0,14, 0.00,60.00,Tuesday
651,26492.878030494234
676,656.30678320755
801,7738.421042636499
835,516.2774812030117
920,23.3383724788726
921,21.00453523098534
923,333.6303673294638
924,300.2673305965174
926,536.7294863510859
927,483.0565377159773
2,2, 1, 2, 0,15, 0.00,60.00,Tuesday
651,29957.73412168873
676,684.3400896166451
801,8707.232226082018
835,516.2774812030117
920,23.876359831710258
921,21.488723848539235
923,320.58820601427558
924,288.52938541284808
926,536.7294863510859
927,483.0565377159773
2,2, 1, 2, 0,16, 0.00,60.00,Tuesday
651,31114.064888435776
676,692.1946156828199
801,9656.420943115581
835,516.2774812030117
920,24.126463123785397
921,21.713816811406859
923,297.760016265729
924,267.9840146391561
926,536.7294863510859
927,483.0565377159773
2,2, 1, 2, 0,17, 0.00,60.00,Tuesday
651,29836.45557784083
676,671.628374865718
801,9502.281361789677
835,516.2774812030117
920,23.710820969482808
921,21.339738872534526
923,296.0002027635236
924,266.4001824871712
926,536.7294863510859
927,483.0565377159773
2,2, 1, 2, 0,18, 0.00,60.00,Tuesday
651,26039.60917982571
676,627.2074164666724
801,7711.7079158558745
835,516.2774812030117
920,22.001066953583476
921,19.80096025822513
923,331.1012423279105
924,297.9911180951194
926,536.7294863510859
927,483.0565377159773
2,2, 1, 2, 0,19, 0.00,60.00,Tuesday
651,26629.091999830733
676,627.2074164666724
801,7510.758421514947
835,516.2774812030117
920,30.57402373527921
921,27.516621361751289
923,340.44375304573938
924,306.39937774116546
926,536.7294863510859
927,483.0565377159773
2,2, 1, 2, 0,20, 0.00,60.00,Tuesday
651,11495.140410129738
676,627.2074164666724
801,3513.940362355496
835,516.2774812030117
920,49.81385920094042
921,44.83247328084638
923,336.2149314367455
924,302.5934382930709
926,536.7294863510859
927,483.0565377159773
2,2, 1, 2, 0,21, 0.00,60.00,Tuesday
651,10811.598926748544
676,627.2074164666724
801,2882.6949546448545
835,516.2774812030117
920,55.48107206220752
921,49.93296485598677
923,340.44375304573938
924,306.39937774116546
926,536.7294863510859
927,483.0565377159773
2,2, 1, 2, 0,22, 0.00,60.00,Tuesday
651,10335.1480545828
676,627.2074164666724
801,2761.070919256789
835,516.2774812030117
920,59.60311310613144
921,53.642801795518298
923,340.44375304573938
924,306.39937774116546
926,536.7294863510859
927,483.0565377159773
2,2, 1, 2, 0,23, 0.00,60.00,Tuesday
651,9942.693851758337
676,627.2074164666724
801,2663.7233178378383
835,516.2774812030117
920,64.91071872393764
921,58.41964685154388
923,340.44375304573938
924,306.39937774116546
926,536.7294863510859
927,483.0565377159773
2,2, 1, 2, 0,24, 0.00,60.00,Tuesday
651,9563.229344231755
676,627.2074164666724
801,2568.5544667947183
835,516.2774812030117
920,65.72498013550761
921,59.15248212195686
923,340.44375304573938
924,306.39937774116546
926,536.7294863510859
927,483.0565377159773
2,3, 1, 3, 0, 1, 0.00,60.00,Wednesday
651,9212.563118617602
676,627.2074164666724
801,2477.6946143153677
835,516.2774812030117
920,65.95704244309222
921,59.36133819878301
923,340.44375304573938
924,306.39937774116546
926,536.7294863510859
927,483.0565377159773
2,3, 1, 3, 0, 2, 0.00,60.00,Wednesday
651,8899.099658049878
676,627.2074164666724
801,2401.0257094825315
835,516.2774812030117
920,66.04093342347854
921,59.436840081130679
923,340.44375304573938
924,306.39937774116546
926,536.7294863510859
927,483.0565377159773
2,3, 1, 3, 0, 3, 0.00,60.00,Wednesday
651,8647.365948457375
676,627.2074164666724
801,2337.0044361029886
835,516.2774812030117
920,66.08621072010283
921,59.47758964809253
923,340.44375304573938
924,306.39937774116546
926,536.7294863510859
927,483.0565377159773
2,3, 1, 3, 0, 4, 0.00,60.00,Wednesday
651,8403.208503563843
676,627.2074164666724
801,2277.0368506377995
835,516.2774812030117
920,66.0861831097906
921,59.477564798811538
923,340.44375304573938
924,306.39937774116546
926,536.7294863510859
927,483.0565377159773
2,3, 1, 3, 0, 5, 0.00,60.00,Wednesday
651,8154.749099967931
676,627.2074164666724
801,2215.9758928754363
835,516.2774812030117
920,65.89694769318176
921,59.307252923863568
923,340.44375304573938
924,306.39937774116546
926,536.7294863510859
927,483.0565377159773
2,3, 1, 3, 0, 6, 0.00,60.00,Wednesday
651,8099.02637152998
676,627.2074164666724
801,2196.0901095288827
835,516.2774812030117
920,65.87572778101689
921,59.288155002915207
923,340.44375304573938
924,306.39937774116546
926,536.7294863510859
927,483.0565377159773
2,3, 1, 3, 0, 7, 0.00,60.00,Wednesday
651,8104.486579210513
676,627.2074164666724
801,2201.3026740577925
835,516.2774812030117
920,65.80231584802546
921,59.22208426322291
923,340.44375304573938
924,306.39937774116546
926,536.7294863510859
927,483.0565377159773
2,3, 1, 3, 0, 8, 0.00,60.00,Wednesday
651,22987.83294448112
676,633.6787742658923
801,6122.130979737649
835,516.2774812030117
920,70.77579647162198
921,63.69821682445979
923,262.9052058128188
924,236.6146852315369
926,536.7294863510859
927,483.0565377159773
2,3, 1, 3, 0, 9, 0.00,60.00,Wednesday
651,25861.80690412753
676,627.2074164666724
801,7229.035224834685
835,516.2774812030117
920,51.62325565157632
921,46.46093008641869
923,340.44375304573938
924,306.39937774116546
926,536.7294863510859
927,483.0565377159773
2,3, 1, 3, 0,10, 0.00,60.00,Wednesday
651,23442.81370409371
676,629.5397898116961
801,6948.460709306888
835,516.2774812030116
920,23.995676026578808
921,21.596108423920929
923,269.9704517209838
924,242.97340654888544
926,536.7294863510859
927,483.0565377159773
2,3, 1, 3, 0,11, 0.00,60.00,Wednesday
651,25309.86707063791
676,648.9922456571661
801,7058.358141007239
835,516.2774812030117
920,28.405192173100575
921,25.564672955790515
923,338.2907200168812
924,304.461648015193
926,536.7294863510859
927,483.0565377159773
2,3, 1, 3, 0,12, 0.00,60.00,Wednesday
651,27789.084730034807
676,678.2028832945551
801,7841.226215216809
835,516.2774812030117
920,25.945789391362024
921,23.351210452225826
923,339.10144393137946
924,305.1912995382415
926,536.7294863510859
927,483.0565377159773
2,3, 1, 3, 0,13, 0.00,60.00,Wednesday
651,28067.14373539212
676,687.5804312670748
801,8134.230270135868
835,516.2774812030117
920,25.003167416397038
921,22.502850674757338
923,329.94116574878486
924,296.94704917390637
926,536.7294863510859
927,483.0565377159773
2,3, 1, 3, 0,14, 0.00,60.00,Wednesday
651,25381.809964352917
676,661.3127610156062
801,7275.726028212562
835,516.2774812030117
920,24.283544445226199
921,21.855190000703585
923,337.4801655373411
924,303.732148983607
926,536.7294863510859
927,483.0565377159773
2,3, 1, 3, 0,15, 0.00,60.00,Wednesday
651,28805.75341303831
676,685.7905644659562
801,8159.0943857907105
835,516.2774812030117
920,24.90645975933897
921,22.41581378340507
923,329.5182585606149
924,296.5664327045535
926,536.7294863510859
927,483.0565377159773
2,3, 1, 3, 0,16, 0.00,60.00,Wednesday
651,30942.82456056899
676,697.2866982397233
801,9298.146911540318
835,516.2774812030117
920,24.570971387005114
921,22.1138742483046
923,306.309350309677
924,275.67841527870936
926,536.7294863510859
927,483.0565377159773
2,3, 1, 3, 0,17, 0.00,60.00,Wednesday
651,31431.703607176973
676,690.4281813559437
801,10012.149643646657
835,516.2774812030117
920,23.93029382682648
921,21.53726444414383
923,288.8554498101984
924,259.96990482917865
926,536.7294863510859
927,483.0565377159773
2,3, 1, 3, 0,18, 0.00,60.00,Wednesday
651,25922.665434551396
676,627.4009381022179
801,7964.112339161293
835,516.2774812030117
920,20.35517360453149
921,18.31965624407834
923,324.839634815775