Program Version,EnergyPlus, Version 8.6.0-198c6a3cff, YMD=2017.09.19 11:39
1,5,Environment Title[],Latitude[deg],Longitude[deg],Time Zone[],Elevation[m]
2,6,Day of Simulation[],Month[],Day of Month[],DST Indicator[1=yes 0=no],Hour[],StartMinute[],EndMinute[],DayType
3,3,Cumulative Day of Simulation[],Month[],Day of Month[],DST Indicator[1=yes 0=no],DayType  ! When Daily Report Variables Requested
4,2,Cumulative Days of Simulation[],Month[]  ! When Monthly Report Variables Requested
5,1,Cumulative Days of Simulation[] ! When Run Period Report Variables Requested
657,1,OA COOLING COIL 1,Cooling Coil Total Cooling Rate [W] !Hourly
660,1,MAIN COOLING COIL 1,Cooling Coil Total Cooling Rate [W] !Hourly
661,1,SUPPLY FAN 1,Fan Electric Power [W] !Hourly
786,1,CENTRAL CHILLER,Chiller Electric Power [W] !Hourly
831,1,HW CIRC PUMP,Pump Electric Power [W] !Hourly
833,1,CW CIRC PUMP,Pump Electric Power [W] !Hourly
279,1,Cooling:EnergyTransfer [J] !Hourly
11,11,Electricity:Facility [J] !RunPeriod [Value,Min,Month,Day,Hour,Minute,Max,Month,Day,Hour,Minute]
End of Data Dictionary
1,SINGAPORE - SGP IWEC Data WMO#=486980,   1.37, 103.98,   8.00,  16.00
2,1, 1, 1, 0, 1, 0.00,60.00,Tuesday
657,0.0
660,0.0
661,408.26295737865919
786,0.0
831,0.0
833,0.0
279,1305213.6245193843
2,1, 1, 1, 0, 2, 0.00,60.00,Tuesday
657,0.0
660,0.0
661,408.26295737865919
786,0.0
831,0.0
833,0.0
279,1112474.4390103289
2,1, 1, 1, 0, 3, 0.00,60.00,Tuesday
657,0.0
660,0.0
661,408.26295737865919
786,0.0
831,0.0
833,0.0
279,950315.6802203775
2,1, 1, 1, 0, 4, 0.00,60.00,Tuesday
657,0.0
660,0.0
661,408.26295737865919
786,0.0
831,0.0
833,0.0
279,820342.9102806642
2,1, 1, 1, 0, 5, 0.00,60.00,Tuesday
657,0.0
660,0.0
661,408.26295737865919
786,0.0
831,0.0
833,0.0
279,710938.3589185632
2,1, 1, 1, 0, 6, 0.00,60.00,Tuesday
657,0.0
660,0.0
661,408.26295737865919
786,0.0
831,0.0
833,0.0
279,616462.5630886802
2,1, 1, 1, 0, 7, 0.00,60.00,Tuesday
657,11829.021873588046
660,0.0
661,408.26295737865919
786,2863.099877755695
831,13.948829483171702
833,407.87316897920069
279,80508.1118028795
2,1, 1, 1, 0, 8, 0.00,60.00,Tuesday
657,11677.522494734032
660,0.0
661,408.26295737865919
786,2787.017760499934
831,9.096937172822669
833,373.9982635842691
279,0.0
2,1, 1, 1, 0, 9, 0.00,60.00,Tuesday
657,11902.180594801943
660,0.0
661,408.88617845763158
786,2915.0229515482515
831,0.5793242704175363
833,371.3639474132967
279,10340728.780385267
2,1, 1, 1, 0,10, 0.00,60.00,Tuesday
657,12280.688427172154
660,2103.9959989452527
661,473.70758881236807
786,3363.1838950083234
831,0.0
833,380.91885156090589
279,19987712.48193203
2,1, 1, 1, 0,11, 0.00,60.00,Tuesday
657,12577.934245787577
660,5005.779380099832
661,595.1002376994966
786,4269.414721946818
831,0.0
833,398.77486256179619
279,28489311.189458118
2,1, 1, 1, 0,12, 0.00,60.00,Tuesday
657,12506.124220168958
660,6671.087520541956
661,630.5764128755343
786,4733.0452463112015
831,0.0
833,415.8916065733814
279,31098503.026878228
2,1, 1, 1, 0,13, 0.00,60.00,Tuesday
657,12201.460511381256
660,5340.414852519123
661,571.0908744348526
786,4390.876687961239
831,0.0
833,413.8358425924954
279,29966024.431194985
2,1, 1, 1, 0,14, 0.00,60.00,Tuesday
657,11784.220022977588
660,7139.374526688317
661,664.0091667572578
786,4497.777054240644
831,0.0
833,402.07942477162239
279,36013173.00525493
2,1, 1, 1, 0,15, 0.00,60.00,Tuesday
657,11938.238207660577
660,7705.438814883522
661,683.3728491006426
786,4790.5072989338605
831,0.0
833,411.9333159623119
279,37977290.61916427
2,1, 1, 1, 0,16, 0.00,60.00,Tuesday
657,12319.907394650749
660,8397.832417723663
661,670.8766696805441
786,5117.863618228271
831,0.0
833,431.17741033021158
279,38315207.59274858
2,1, 1, 1, 0,17, 0.00,60.00,Tuesday
657,12795.179578782925
660,7147.410879509898
661,603.2596910890787
786,5079.519683470675
831,0.0
833,448.0478118827001
279,34924344.52338285
2,1, 1, 1, 0,18, 0.00,60.00,Tuesday
657,12866.265725194567
660,5832.410767550085
661,552.1744405558736
786,4756.209380179675
831,0.0
833,453.5293608953227
279,31210936.16478446
2,1, 1, 1, 0,19, 0.00,60.00,Tuesday
657,12629.422968377903
660,642.0975583897134
661,418.1335922358889
786,3553.062367113937
831,0.0
833,463.24891153043617
279,15600423.02735073
2,1, 1, 1, 0,20, 0.00,60.00,Tuesday
657,12497.461505007008
660,0.0
661,408.26295737865919
786,3082.4427769240788
831,0.2548593114102147
833,450.61419693349287
279,13474733.957165607
2,1, 1, 1, 0,21, 0.00,60.00,Tuesday
657,0.0
660,0.0
661,408.26295737865919
786,0.0
831,0.0
833,0.0
279,2427269.9969356746
2,1, 1, 1, 0,22, 0.00,60.00,Tuesday
657,0.0
660,0.0
661,408.26295737865919
786,0.0
831,0.0
833,0.0
279,2200446.3131536415
2,1, 1, 1, 0,23, 0.00,60.00,Tuesday
657,0.0
660,0.0
661,408.26295737865919
786,0.0
831,0.0
833,0.0
279,1823555.1567673307
2,1, 1, 1, 0,24, 0.00,60.00,Tuesday
657,0.0
660,0.0
661,408.26295737865919
786,0.0
831,0.0
833,0.0
279,1540982.0109209764
2,2, 1, 2, 0, 1, 0.00,60.00,Wednesday
657,0.0
660,0.0
661,408.26295737865919
786,0.0
831,0.0
833,0.0
279,1305788.6574217594
2,2, 1, 2, 0, 2, 0.00,60.00,Wednesday
657,0.0
660,0.0
661,408.26295737865919
786,0.0
831,0.0
833,0.0
279,1115162.495303681
2,2, 1, 2, 0, 3, 0.00,60.00,Wednesday
657,0.0
660,0.0
661,408.26295737865919
786,0.0
831,0.0
833,0.0
279,955069.7693686003
2,2, 1, 2, 0, 4, 0.00,60.00,Wednesday
657,0.0
660,0.0
661,408.26295737865919
786,0.0
831,0.0
833,0.0
279,822922.4275621474
2,2, 1, 2, 0, 5, 0.00,60.00,Wednesday
657,0.0
660,0.0
661,408.26295737865919
786,0.0
831,0.0
833,0.0
279,714724.5940273721
2,2, 1, 2, 0, 6, 0.00,60.00,Wednesday
657,0.0
660,0.0
661,408.26295737865919
786,0.0
831,0.0
833,0.0
279,625512.4005343124
2,2, 1, 2, 0, 7, 0.00,60.00,Wednesday
657,12581.865420109552
660,0.0
661,408.26295737865919
786,3035.536209453199
831,13.244479581594615
833,419.43311648225758
279,73051.4369496477
2,2, 1, 2, 0, 8, 0.00,60.00,Wednesday
657,12770.920501612378
660,0.0
661,408.26295737865919
786,3070.815018940495
831,8.675735630825463
833,400.34573849443856
279,5430.048249565698
2,2, 1, 2, 0, 9, 0.00,60.00,Wednesday
657,12889.472427498407
660,0.0
661,409.039073327346
786,3175.2230266119127
831,0.5411669662353643
833,402.7900164555
279,10454270.61059815
2,2, 1, 2, 0,10, 0.00,60.00,Wednesday
657,13080.103847251517
660,2218.4020578829263
661,476.6775469670363
786,3595.9244070473424
831,0.0
833,407.538224161638
279,20276071.091597506
2,2, 1, 2, 0,11, 0.00,60.00,Wednesday
657,13265.664889165138
660,5031.229343820074
661,593.3792508068393
786,4445.580368537519
831,0.0
833,419.5563042700418
279,28408668.409891644
2,2, 1, 2, 0,12, 0.00,60.00,Wednesday
657,13441.64142386407
660,6602.973492282326
661,639.2672927665142
786,4991.578287809877
831,0.0
833,443.6026191633912
279,31752504.842710005
2,2, 1, 2, 0,13, 0.00,60.00,Wednesday
657,13671.050470474653
660,6068.678934426784
661,599.7216488806396
786,5076.54989110513
831,0.0
833,456.01799717560535
279,31846402.284644579
2,2, 1, 2, 0,14, 0.00,60.00,Wednesday
657,13850.7252340506
660,7448.525584372236
661,684.7380177526434
786,5397.298407827119
831,0.0
833,459.6696845978863
279,37180064.48299844
2,2, 1, 2, 0,15, 0.00,60.00,Wednesday
657,13847.130304690625
660,9178.574610919937
661,708.010285550325
786,5890.204522853392
831,0.0
833,470.2880165866079
279,39078618.32163383
2,2, 1, 2, 0,16, 0.00,60.00,Wednesday
657,13690.444921768412
660,9128.59056264589
661,693.1513473686398
786,5883.123545280135
831,0.0
833,471.5163024895818
279,38950882.475934859
2,2, 1, 2, 0,17, 0.00,60.00,Wednesday
657,13535.68261142452
660,7591.5297981636695
661,617.4751549487522
786,5454.138505404056
831,0.0
833,469.5861816841909
279,35097377.83970195
2,2, 1, 2, 0,18, 0.00,60.00,Wednesday
657,13461.981119751588
660,6159.7937060255545
661,557.6812537415718
786,5018.997115972964
831,0.0
833,471.937937710744
279,30998352.95118017
2,2, 1, 2, 0,19, 0.00,60.00,Wednesday
657,13220.246260182299
660,676.3868509387638
661,419.1620238487962
786,3725.0812927289494
831,0.0
833,480.8618246736404
279,15494324.307947832
2,2, 1, 2, 0,20, 0.00,60.00,Wednesday
657,13047.744169915386
660,0.0
661,408.26295737865919
786,3233.29142046575
831,0.24152708555250569
833,472.11856471536137
279,13331148.705933229
2,2, 1, 2, 0,21, 0.00,60.00,Wednesday
657,0.0
660,0.0
661,408.26295737865919
786,0.0
831,0.0
833,0.0
279,2192037.3089381714
2,2, 1, 2, 0,22, 0.00,60.00,Wednesday
657,0.0
660,0.0
661,408.26295737865919
786,0.0
831,0.0
833,0.0
279,2027464.5709630089
2,2, 1, 2, 0,23, 0.00,60.00,Wednesday
657,0.0
660,0.0
661,408.26295737865919
786,0.0
831,0.0
833,0.0
279,1684220.202356928
2,2, 1, 2, 0,24, 0.00,60.00,Wednesday
657,0.0
660,0.0
661,408.26295737865919
786,0.0
831,0.0
833,0.0
279,1434300.8737713174
2,3, 1, 3, 0, 1, 0.00,60.00,Thursday
657,0.0
660,0.0
661,408.26295737865919
786,0.0
831,0.0
833,0.0
279,1235350.5535503203
2,3, 1, 3, 0, 2, 0.00,60.00,Thursday
657,0.0
660,0.0
661,408.26295737865919
786,0.0
831,0.0
833,0.0
279,1074414.1277304127
2,3, 1, 3, 0, 3, 0.00,60.00,Thursday
657,0.0
660,0.0
661,408.26295737865919
786,0.0
831,0.0
833,0.0
279,946152.9569710713
2,3, 1, 3, 0, 4, 0.00,60.00,Thursday
657,0.0
660,0.0
661,408.26295737865919
786,0.0
831,0.0
833,0.0
279,838875.8957511502
2,3, 1, 3, 0, 5, 0.00,60.00,Thursday
657,0.0
660,0.0
661,408.26295737865919
786,0.0
831,0.0
833,0.0
279,750232.2905907782
2,3, 1, 3, 0, 6, 0.00,60.00,Thursday
657,0.0
660,0.0
661,408.26295737865919
786,0.0
831,0.0
833,0.0
279,669856.965815001
2,3, 1, 3, 0, 7, 0.00,60.00,Thursday
657,12808.198532745071
660,0.0
661,408.26295737865919
786,3162.21545826149
831,11.670277841528545
833,475.3594901196718
279,133289.43604582526
2,3, 1, 3, 0, 8, 0.00,60.00,Thursday
657,12997.126487886597
660,0.0
661,408.26295737865919
786,3118.4275880159794
831,8.137823811840484
833,439.1925557330203
279,140490.9369375086
2,3, 1, 3, 0, 9, 0.00,60.00,Thursday
657,13237.54171817207
660,3.8001733382992235
661,410.53460354110509
786,3240.5879729373955
831,0.3980329853908205
833,415.856455875042
279,10879586.471499931
2,3, 1, 3, 0,10, 0.00,60.00,Thursday
657,13289.434569920797
660,2773.0019849782393
661,496.8286301473976
786,3820.9629851563977
831,0.0
833,420.69368625529816
279,22152461.9492329
2,3, 1, 3, 0,11, 0.00,60.00,Thursday
657,13483.546561714113
660,6210.29199444772
661,612.2674032538324
786,4861.861185634141
831,0.0
833,443.48539369413876
279,29968333.88692833
2,3, 1, 3, 0,12, 0.00,60.00,Thursday
657,13536.284419950909
660,7487.803268342631
661,644.2317458934529
786,5394.579819566066
831,0.0
833,452.2919572421912
279,32900357.897543428
2,3, 1, 3, 0,13, 0.00,60.00,Thursday
657,13291.698021788667
660,6478.572045198972
661,603.9410354705072
786,5172.423021595927
831,0.0
833,444.4697948318115
279,32998230.635371888
2,3, 1, 3, 0,14, 0.00,60.00,Thursday
657,13151.423702305265
660,7498.879738926341
661,670.8803858353652
786,5328.405657796806
831,0.0
833,437.7498042961764
279,37851564.833012249
2,3, 1, 3, 0,15, 0.00,60.00,Thursday
657,13237.23909139033
660,9190.389910403303
661,692.2191890729249
786,5846.5292159900755
831,0.0
833,451.19996205703577
279,39997142.40341527
2,3, 1, 3, 0,16, 0.00,60.00,Thursday
657,13369.795764400193
660,9454.273860289584
661,691.0901371134411
786,5987.426166267453
831,0.0
833,463.4294723835137
279,40790025.68707446
2,3, 1, 3, 0,17, 0.00,60.00,Thursday
657,13589.461622158786
660,8685.183125624262
661,648.2641026742294
786,5843.489474901784
831,0.0
833,475.28438282459038
279,38873763.356610897
2,3, 1, 3, 0,18, 0.00,60.00,Thursday
657,13667.679993541718
660,7604.714246380861
661,598.692838810864
786,5523.445584546492
831,0.0
833,482.73770917282317
279,35686447.88049627
2,3, 1, 3, 0,19, 0.00,60.00,Thursday
657,13494.569540661296
660,1602.1604890714439
661,433.34709745822667
786,4082.6173206238627
831,0.0
833,489.5904301926897
279,19286950.737596029
2,3, 1, 3, 0,20, 0.00,60.00,Thursday
657,13400.837713391711
660,3.3786812405223318
661,408.26295737865919
786,3366.7910995287148
831,0.06535679078571316
833,485.59594037917608
279,14468458.321788595
2,3, 1, 3, 0,21, 0.00,60.00,Thursday
657,0.0
660,0.0
661,408.26295737865919
786,0.0
831,0.0
833,0.0
279,2606155.688466943
2,3, 1, 3, 0,22, 0.00,60.00,Thursday
657,0.0
660,0.0
661,408.26295737865919
786,0.0
831,0.0
833,0.0
279,2340525.3399447279
2,3, 1, 3, 0,23, 0.00,60.00,Thursday
657,0.0
660,0.0
661,408.26295737865919
786,0.0
831,0.0
833,0.0
279,1933942.3028922217
2,3, 1, 3, 0,24, 0.00,60.00,Thursday
657,0.0
660,0.0
661,408.26295737865919
786,0.0
831,0.0
833,0.0
279,1626485.4234174547
2,4, 1, 4, 0, 1, 0.00,60.00,Friday
657,0.0
660,0.0
661,408.26295737865919
786,0.0
831,0.0
833,0.0
279,1376665.8894165098
2,4, 1, 4, 0, 2, 0.00,60.00,Friday
657,0.0
660,0.0
661,408.26295737865919
786,0.0
831,0.0
833,0.0
279,1173812.0824122385
2,4, 1, 4, 0, 3, 0.00,60.00,Friday
657,0.0
660,0.0
661,408.26295737865919
786,0.0
831,0.0
833,0.0
279,1016228.8733216388
2,4, 1, 4, 0, 4, 0.00,60.00,Friday
657,0.0
660,0.0
661,408.26295737865919
786,0.0
831,0.0
833,0.0
279,896481.1239395221
2,4, 1, 4, 0, 5, 0.00,60.00,Friday
657,0.0
660,0.0
661,408.26295737865919
786,0.0
831,0.0
833,0.0
279,803258.4581244795
2,4, 1, 4, 0, 6, 0.00,60.00,Friday
657,0.0
660,0.0
661,408.26295737865919
786,0.0
831,0.0
833,0.0
279,726961.9615286766
2,4, 1, 4, 0, 7, 0.00,60.00,Friday
657,13091.16545446321
660,0.0
661,408.26295737865919
786,3239.6735335506282
831,10.460269872239165
833,485.47205207877877
279,295757.00308407269
2,4, 1, 4, 0, 8, 0.00,60.00,Friday
657,13106.222942593522
660,0.0
661,408.26295737865919
786,3147.2243909374884
831,7.967496598455332
833,444.0666804303164
279,259240.51480862435
2,4, 1, 4, 0, 9, 0.00,60.00,Friday
657,13313.875871625076
660,0.0
661,408.26295737865919
786,3262.8665293026
831,0.5900676753952986
833,422.9426149593784
279,10224730.462090955
2,4, 1, 4, 0,10, 0.00,60.00,Friday
657,13700.197739711964
660,1968.802203518299
661,466.64125055611569
786,3762.379242849216
831,0.040883188180369619
833,441.13164601954767
279,19382405.087890284
2,4, 1, 4, 0,11, 0.00,60.00,Friday
657,14008.678068404877
660,5823.81892728143
661,592.8084646506688
786,4830.572094855843
831,0.0
833,455.780195544331
279,28374661.072274034
2,4, 1, 4, 0,12, 0.00,60.00,Friday
657,14181.355789078785
660,7378.16458887318
661,645.4931811821613
786,5486.069334592725
831,0.0
833,463.5895883354237
279,31662205.024203358
2,4, 1, 4, 0,13, 0.00,60.00,Friday
657,14155.601636754993
660,6342.707870817223
661,607.5007085859455
786,5326.4790479106905
831,0.0
833,462.45766896486006
279,31910717.433010959
2,4, 1, 4, 0,14, 0.00,60.00,Friday
657,14185.752396289981
660,7672.736081813058
661,685.4189907231752
786,5533.118854379478
831,0.0
833,462.52046911606
279,36880508.2763691
2,4, 1, 4, 0,15, 0.00,60.00,Friday
657,14136.757324555267
660,9308.025579456635
661,707.3788389532867
786,6052.0748415303715
831,0.0
833,473.08245581111427
279,38734953.73145161
2,4, 1, 4, 0,16, 0.00,60.00,Friday
657,14015.153426142568
660,9174.168772851861
661,691.563567348558
786,5999.980035353644
831,0.0
833,476.7551062614058
279,38589346.13997487
2,4, 1, 4, 0,17, 0.00,60.00,Friday
657,13868.618418463393
660,7555.42659613269
661,615.2213607461099
786,5550.670451339693
831,0.0
833,478.01127381806278
279,34777993.65850077
2,4, 1, 4, 0,18, 0.00,60.00,Friday
657,13780.73597598018
660,6087.687810717145
661,556.1308218397256
786,5091.450985893045
831,0.0
833,481.03292257970255
279,30806528.23632977
2,4, 1, 4, 0,19, 0.00,60.00,Friday
657,13659.299023285314
660,649.3961856791421
661,418.73826263375846
786,3825.2116391846544
831,0.0
833,494.3138696904243
279,15412514.744132083
2,4, 1, 4, 0,20, 0.00,60.00,Friday
657,13536.994803085465
660,0.0
661,408.26295737865919
786,3350.2648797553315
831,0.26053198281224429
833,484.56479696718966
279,13302669.478168533
2,4, 1, 4, 0,21, 0.00,60.00,Friday
657,0.0
660,0.0
661,408.26295737865919
786,0.0
831,0.0
833,0.0
279,2274501.2471386629
2,4, 1, 4, 0,22, 0.00,60.00,Friday
657,0.0
660,0.0
661,408.26295737865919
786,0.0
831,0.0
833,0.0
279,2100250.6773714886
2,4, 1, 4, 0,23, 0.00,60.00,Friday
657,0.0
660,0.0
661,408.26295737865919
786,0.0
831,0.0
833,0.0
279,1750989.1981283329
2,4, 1, 4, 0,24, 0.00,60.00,Friday
657,0.0
660,0.0
661,408.26295737865919
786,0.0
831,0.0
833,0.0
279,1486414.0714611705
2,5, 1, 5, 0, 1, 0.00,60.00,Saturday
657,0.0
660,0.0
661,408.26295737865919
786,0.0
831,0.0
833,0.0
279,1149439.9757372253
2,5, 1, 5, 0, 2, 0.00,60.00,Saturday
657,0.0
660,0.0
661,408.26295737865919
786,0.0
831,0.0
833,0.0
279,869537.8021564211
2,5, 1, 5, 0, 3, 0.00,60.00,Saturday
657,0.0
660,0.0
661,408.26295737865919
786,0.0
831,0.0
833,0.0
279,713735.5016843485
2,5, 1, 5, 0, 4, 0.00,60.00,Saturday
657,0.0
660,0.0
661,408.26295737865919
786,0.0
831,0.0
833,0.0
279,607156.1124313226
2,5, 1, 5, 0, 5, 0.00,60.00,Saturday
657,0.0
660,0.0
661,408.26295737865919
786,0.0
831,0.0
833,0.0
279,527112.1070865535
2,5, 1, 5, 0, 6, 0.00,60.00,Saturday
657,0.0
660,0.0
661,408.26295737865919
786,0.0
831,0.0
833,0.0
279,465491.51990123538
2,5, 1, 5, 0, 7, 0.00,60.00,Saturday
657,0.0
660,0.0
661,408.26295737865919
786,0.0
831,0.0
833,0.0
279,416662.25880199469
2,5, 1, 5, 0, 8, 0.00,60.00,Saturday
657,0.0
660,0.0
661,408.26295737865919
786,0.0
831,0.0
833,0.0
279,360172.6159968395
2,5, 1, 5, 0, 9, 0.00,60.00,Saturday
657,0.0
660,0.0
661,408.26295737865919
786,0.0
831,0.0
833,0.0
279,141167.16724623694
2,5, 1, 5, 0,10, 0.00,60.00,Saturday
657,0.0
660,0.0
661,408.26295737865919
786,0.0
831,0.0
833,0.0
279,74338.66913850761
2,5, 1, 5, 0,11, 0.00,60.00,Saturday
657,0.0
660,0.0
661,408.26295737865919
786,0.0
831,0.0
833,0.0
279,188322.58974986408
2,5, 1, 5, 0,12, 0.00,60.00,Saturday
657,0.0
660,0.0
661,408.26295737865919
786,0.0
831,0.0
833,0.0
279,216285.3135057694
2,5, 1, 5, 0,13, 0.00,60.00,Saturday
657,0.0
660,0.0
661,408.26295737865919
786,0.0
831,0.0
833,0.0
279,303240.6872315067
2,5, 1, 5, 0,14, 0.00,60.00,Saturday
657,0.0
660,0.0
661,408.26295737865919
786,0.0
831,0.0
833,0.0
279,694168.1541568071
2,5, 1, 5, 0,15, 0.00,60.00,Saturday
657,0.0
660,0.0
661,408.26295737865919
786,0.0
831,0.0
833,0.0
279,1188343.5460150142
2,5, 1, 5, 0,16, 0.00,60.00,Saturday
657,0.0
660,0.0
661,408.26295737865919
786,0.0
831,0.0
833,0.0
279,1594467.514479145
2,5, 1, 5, 0,17, 0.00,60.00,Saturday
657,0.0
660,0.0
661,408.26295737865919
786,0.0
831,0.0
833,0.0
279,1920802.6045030414
2,5, 1, 5, 0,18, 0.00,60.00,Saturday
657,0.0
660,0.0
661,408.26295737865919
786,0.0
831,0.0
833,0.0
279,2031294.8749390743
2,5, 1, 5, 0,19, 0.00,60.00,Saturday
657,0.0
660,0.0
661,408.26295737865919
786,0.0
831,0.0
833,0.0
279,2059874.0835616177
2,5, 1, 5, 0,20, 0.00,60.00,Saturday
657,0.0
660,0.0
661,408.26295737865919
786,0.0
831,0.0
833,0.0
279,2043655.8095429959
2,5, 1, 5, 0,21, 0.00,60.00,Saturday
657,0.0
660,0.0
661,408.26295737865919
786,0.0
831,0.0
833,0.0
279,1889624.4306813677
2,5, 1, 5, 0,22, 0.00,60.00,Saturday
657,0.0
660,0.0
661,408.26295737865919
786,0.0
831,0.0
833,0.0
279,1644516.9679532957
2,5, 1, 5, 0,23, 0.00,60.00,Saturday
657,0.0
660,0.0
661,408.26295737865919
786,0.0
831,0.0
833,0.0
279,1409299.5249544015
2,5, 1, 5, 0,24, 0.00,60.00,Saturday
657,0.0
660,0.0
661,408.26295737865919
786,0.0
831,0.0
833,0.0
279,1204865.7903382565
2,6, 1, 6, 0, 1, 0.00,60.00,Sunday
657,0.0
660,0.0
661,408.26295737865919
786,0.0
831,0.0
833,0.0
279,1032632.7841911479
2,6, 1, 6, 0, 2, 0.00,60.00,Sunday
657,0.0
660,0.0
661,408.26295737865919
786,0.0
831,0.0
833,0.0
279,889461.3851174417
2,6, 1, 6, 0, 3, 0.00,60.00,Sunday
657,0.0
660,0.0
661,408.26295737865919
786,0.0
831,0.0
833,0.0
279,768062.0238351522
2,6, 1, 6, 0, 4, 0.00,60.00,Sunday
657,0.0
660,0.0
661,408.26295737865919
786,0.0
831,0.0
833,0.0
279,666288.7584542935
2,6, 1, 6, 0, 5, 0.00,60.00,Sunday
657,0.0
660,0.0
661,408.26295737865919
786,0.0
831,0.0
833,0.0
279,583064.6716216608
2,6, 1, 6, 0, 6, 0.00,60.00,Sunday
657,0.0
660,0.0
661,408.26295737865919
786,0.0
831,0.0
833,0.0
279,507803.83555349087
2,6, 1, 6, 0, 7, 0.00,60.00,Sunday
657,0.0
660,0.0
661,408.26295737865919
786,0.0
831,0.0
833,0.0
279,440018.0743567784
2,6, 1, 6, 0, 8, 0.00,60.00,Sunday
657,0.0
660,0.0
661,408.26295737865919
786,0.0
831,0.0
833,0.0
279,365994.661991942
2,6, 1, 6, 0, 9, 0.00,60.00,Sunday
657,0.0
660,0.0
661,408.26295737865919
786,0.0
831,0.0
833,0.0
279,140099.6319485701
2,6, 1, 6, 0,10, 0.00,60.00,Sunday
657,0.0
660,0.0
661,408.26295737865919
786,0.0
831,0.0
833,0.0
279,77343.71555848033
2,6, 1, 6, 0,11, 0.00,60.00,Sunday
657,0.0
660,0.0
661,408.26295737865919
786,0.0
831,0.0
833,0.0
279,189701.42685862087
2,6, 1, 6, 0,12, 0.00,60.00,Sunday
657,0.0
660,0.0
661,408.26295737865919
786,0.0
831,0.0
833,0.0
279,227158.1228478728
2,6, 1, 6, 0,13, 0.00,60.00,Sunday
657,0.0
660,0.0
661,408.26295737865919
786,0.0
831,0.0
833,0.0
279,490989.7215041302
2,6, 1, 6, 0,14, 0.00,60.00,Sunday
657,0.0
660,0.0
661,408.26295737865919
786,0.0
831,0.0
833,0.0
279,965628.198007137
2,6, 1, 6, 0,15, 0.00,60.00,Sunday
657,0.0
660,0.0
661,408.26295737865919
786,0.0
831,0.0
833,0.0
279,1484226.4702894178
2,6, 1, 6, 0,16, 0.00,60.00,Sunday
657,0.0
660,0.0
661,408.26295737865919
786,0.0
831,0.0
833,0.0
279,1837251.9351980373
2,6, 1, 6, 0,17, 0.00,60.00,Sunday
657,0.0
660,0.0
661,408.26295737865919
786,0.0
831,0.0
833,0.0
279,2087304.7103266575
2,6, 1, 6, 0,18, 0.00,60.00,Sunday
657,0.0
660,0.0
661,408.26295737865919
786,0.0
831,0.0
833,0.0
279,2251911.4168284528
2,6, 1, 6, 0,19, 0.00,60.00,Sunday
657,0.0
660,0.0
661,408.26295737865919
786,0.0
831,0.0
833,0.0
279,2432337.9207684129
2,6, 1, 6, 0,20, 0.00,60.00,Sunday
657,0.0
660,0.0
661,408.26295737865919
786,0.0
831,0.0
833,0.0
279,2473983.697447643
2,6, 1, 6, 0,21, 0.00,60.00,Sunday
657,0.0
660,0.0
661,408.26295737865919
786,0.0
831,0.0
833,0.0
279,2280905.567747899
2,6, 1, 6, 0,22, 0.00,60.00,Sunday
657,0.0
660,0.0
661,408.26295737865919
786,0.0
831,0.0
833,0.0
279,1971741.1859827724
2,6, 1, 6, 0,23, 0.00,60.00,Sunday
657,0.0
660,0.0
661,408.26295737865919
786,0.0
831,0.0
833,0.0
279,1673395.1648764676
2,6, 1, 6, 0,24, 0.00,60.00,Sunday
657,0.0
660,0.0
661,408.26295737865919
786,0.0
831,0.0
833,0.0
279,1414163.702383813
2,7, 1, 7, 0, 1, 0.00,60.00,Monday
657,0.0
660,0.0
661,408.26295737865919
786,0.0
831,0.0
833,0.0
279,1310598.7994875827
2,7, 1, 7, 0, 2, 0.00,60.00,Monday
657,0.0
660,0.0
661,408.26295737865919
786,0.0
831,0.0
833,0.0
279,1224661.544050284
2,7, 1, 7, 0, 3, 0.00,60.00,Monday
657,0.0
660,0.0
661,408.26295737865919
786,0.0
831,0.0
833,0.0
279,1080383.4459857429
2,7, 1, 7, 0, 4, 0.00,60.00,Monday
657,0.0
660,0.0
661,408.26295737865919
786,0.0
831,0.0
833,0.0
279,949247.1662133247
2,7, 1, 7, 0, 5, 0.00,60.00,Monday
657,0.0
660,0.0
661,408.26295737865919
786,0.0
831,0.0
833,0.0
279,840427.5229003966
2,7, 1, 7, 0, 6, 0.00,60.00,Monday
657,0.0
660,0.0
661,408.26295737865919
786,0.0
831,0.0
833,0.0
279,744818.1170568119
2,7, 1, 7, 0, 7, 0.00,60.00,Monday
657,12714.922712122627
660,0.0
661,408.26295737865919
786,3209.367825930255
831,11.385336159594111
833,520.696742780845
279,194436.2165790277
2,7, 1, 7, 0, 8, 0.00,60.00,Monday
657,12836.37398554841
660,0.0
661,408.26295737865919
786,3071.5329562855186
831,7.969159325457152
833,461.0685481840633
279,170713.19840529268
2,7, 1, 7, 0, 9, 0.00,60.00,Monday
657,13063.632778938812
660,0.0
661,409.1747529398019
786,3196.366101721341
831,0.49371014408657329
833,424.37049615102395
279,10629674.991122045
2,7, 1, 7, 0,10, 0.00,60.00,Monday
657,13349.368402973774
660,2518.043255360556
661,486.8916266938156
786,3778.574754350794
831,0.0
833,434.27016011212188
279,21209581.89388758
2,7, 1, 7, 0,11, 0.00,60.00,Monday
657,13541.338496618479
660,6495.715081190188
661,610.5944548157117
786,4904.95817831899
831,0.0
833,451.0570863450902
279,29280436.818656137
2,7, 1, 7, 0,12, 0.00,60.00,Monday
657,13856.292220100757
660,7595.166252844712
661,657.7820240119072
786,5491.203539397259
831,0.0
833,462.764038909903
279,32583437.439542824
2,7, 1, 7, 0,13, 0.00,60.00,Monday
657,14107.985499162744
660,6543.523407256637
661,618.8143583514249
786,5410.547907650591
831,0.0
833,462.4026074587398
279,32750676.493531053
2,7, 1, 7, 0,14, 0.00,60.00,Monday
657,14357.036017321841
660,7647.750812382208
661,697.6232367918742
786,5706.1011952561
831,0.0
833,461.36777673794679
279,37734875.62254587
2,7, 1, 7, 0,15, 0.00,60.00,Monday
657,14235.942569808461
660,9473.62617393336
661,725.6853920459545
786,6233.525734806738
831,0.0
833,471.1654452685732
279,40092148.98859463
2,7, 1, 7, 0,16, 0.00,60.00,Monday
657,13974.436808937115
660,9496.147301573095
661,715.4214945660469
786,6203.758925379681
831,0.0
833,475.90133111769679
279,40501267.04765697
2,7, 1, 7, 0,17, 0.00,60.00,Monday
657,13744.293981214336
660,8360.513159378575
661,651.0570080711128
786,5821.848129683838
831,0.0
833,475.41172440773246
279,37520878.05926886
2,7, 1, 7, 0,18, 0.00,60.00,Monday
657,13227.473836067029
660,6842.435742366365
661,581.5396377396062
786,5191.400053396251
831,0.0
833,465.62602812854876
279,33126783.502336448
2,7, 1, 7, 0,19, 0.00,60.00,Monday
657,13025.973005105956
660,906.022290059269
661,422.52010967352359
786,3774.7639573602755
831,0.0
833,475.2148124893023
279,16487359.411743958
2,7, 1, 7, 0,20, 0.00,60.00,Monday
657,13102.439563412621
660,0.0
661,408.26295737865919
786,3264.1906131579995
831,0.18213103816474075
833,476.0962968779287
279,13678193.630695783
2,7, 1, 7, 0,21, 0.00,60.00,Monday
657,0.0
660,0.0
661,408.26295737865919
786,0.0
831,0.0
833,0.0
279,2328437.38137463
2,7, 1, 7, 0,22, 0.00,60.00,Monday
657,0.0
660,0.0
661,408.26295737865919
786,0.0
831,0.0
833,0.0
279,2147277.6444313947
2,7, 1, 7, 0,23, 0.00,60.00,Monday
657,0.0
660,0.0
661,408.26295737865919
786,0.0
831,0.0
833,0.0
279,1796525.0383798029
2,7, 1, 7, 0,24, 0.00,60.00,Monday
657,0.0
660,0.0
661,408.26295737865919
786,0.0
831,0.0
833,0.0
279,1534132.8737557505
2,8, 1, 8, 0, 1, 0.00,60.00,Tuesday
657,0.0
660,0.0
661,408.26295737865919
786,0.0
831,0.0
833,0.0
279,1322346.5269538859
2,8, 1, 8, 0, 2, 0.00,60.00,Tuesday
657,0.0
660,0.0
661,408.26295737865919
786,0.0
831,0.0
833,0.0
279,1147547.9633551397
2,8, 1, 8, 0, 3, 0.00,60.00,Tuesday
657,0.0
660,0.0
661,408.26295737865919
786,0.0
831,0.0
833,0.0
279,1002945.0031560746
2,8, 1, 8, 0, 4, 0.00,60.00,Tuesday
657,0.0
660,0.0
661,408.26295737865919
786,0.0
831,0.0
833,0.0
279,876580.9936643273
2,8, 1, 8, 0, 5, 0.00,60.00,Tuesday
657,0.0
660,0.0
661,408.26295737865919
786,0.0
831,0.0
833,0.0
279,767674.0849708074
2,8, 1, 8, 0, 6, 0.00,60.00,Tuesday
657,0.0
660,0.0
661,408.26295737865919
786,0.0
831,0.0
833,0.0
279,670864.0477952161
2,8, 1, 8, 0, 7, 0.00,60.00,Tuesday
657,12389.07463745
660,0.0
661,408.26295737865919
786,3022.0786793158077
831,12.450756267122723
833,444.1707330607358
279,78943.80224521697
2,8, 1, 8, 0, 8, 0.00,60.00,Tuesday
657,12551.091521355902
660,0.0
661,408.26295737865919
786,3000.530032097783
831,8.602590243598208
833,415.2079407368211
279,24907.6302149213
2,8, 1, 8, 0, 9, 0.00,60.00,Tuesday
657,12859.393386105876
660,0.0
661,410.1289914090025
786,3131.716093930965
831,0.44443714683329468
833,399.1064285578915
279,10696208.544019459
2,8, 1, 8, 0,10, 0.00,60.00,Tuesday
657,13482.423594635035
660,2555.9575841822752
661,489.4901567762485
786,3813.3776160036373
831,0.0
833,420.5583683302107
279,21507663.54992247
2,8, 1, 8, 0,11, 0.00,60.00,Tuesday
657,13946.269215159786
660,5790.734541761347
661,603.8150611107608
786,4857.06118969664
831,0.0
833,452.6416327261835
279,29526533.047955544
2,8, 1, 8, 0,12, 0.00,60.00,Tuesday
657,14061.16762586441
660,7431.546334848522
661,639.1797236516942
786,5507.88013457147
831,0.0
833,465.2898115146145
279,32496291.969648255
2,8, 1, 8, 0,13, 0.00,60.00,Tuesday
657,14109.683292313615
660,6401.505425588383
661,597.8144449056717
786,5363.808264907635
831,0.0
833,467.4605330207628
279,32573620.253443146
2,8, 1, 8, 0,14, 0.00,60.00,Tuesday
657,14105.964037615835
660,7660.2472328657095
661,665.8346434869591
786,5595.125782090491
831,0.0
833,467.7831809132373
279,37574075.61617963
2,8, 1, 8, 0,15, 0.00,60.00,Tuesday
657,13969.875425373684
660,9146.291017277475
661,682.8349622089895
786,6067.321205126455
831,0.0
833,477.97293678026076
279,39487121.58557391
2,8, 1, 8, 0,16, 0.00,60.00,Tuesday
657,13962.04144460773
660,9454.877393389326
661,685.1788172178835
786,6166.737201651345
831,0.0
833,483.44219771288547
279,40481571.08101894
2,8, 1, 8, 0,17, 0.00,60.00,Tuesday
657,13878.693629433075
660,8872.104420855396
661,652.7589675780965
786,6010.816227854235
831,0.0
833,485.0990091418781
279,39282139.22698037
2,8, 1, 8, 0,18, 0.00,60.00,Tuesday
657,13599.151622478876
660,8235.354417785451
661,621.5373693952082
786,5700.461876015841
831,0.0
833,480.5797028995757
279,37613466.24274126
2,8, 1, 8, 0,19, 0.00,60.00,Tuesday
657,13344.814884632691
660,2847.432958507837
661,457.42539201524428
786,4359.323227673544
831,0.0
833,480.40943832172
279,23695306.151900077
2,8, 1, 8, 0,20, 0.00,60.00,Tuesday
657,13069.788392671211
660,124.57652845092676
661,409.92217280523308
786,3393.6400999377665
831,0.020899238199273318
833,478.3204065818597
279,15288714.659881046
2,8, 1, 8, 0,21, 0.00,60.00,Tuesday
657,0.0
660,0.0
661,408.26295737865919
786,0.0
831,0.0
833,0.0
279,2675158.266585889
2,8, 1, 8, 0,22, 0.00,60.00,Tuesday
657,0.0
660,0.0
661,408.26295737865919
786,0.0
831,0.0
833,0.0
279,2425118.492710963
2,8, 1, 8, 0,23, 0.00,60.00,Tuesday
657,0.0
660,0.0
661,408.26295737865919
786,0.0
831,0.0
833,0.0
279,2031594.6708591274
2,8, 1, 8, 0,24, 0.00,60.00,Tuesday
657,0.0
660,0.0
661,408.26295737865919
786,0.0
831,0.0
833,0.0
279,1729515.871585148
2,9, 1, 9, 0, 1, 0.00,60.00,Wednesday
657,0.0
660,0.0
661,408.26295737865919
786,0.0
831,0.0
833,0.0
279,1471316.9555253913
2,9, 1, 9, 0, 2, 0.00,60.00,Wednesday
657,0.0
660,0.0
661,408.26295737865919
786,0.0
831,0.0
833,0.0
279,1275601.6746376493
2,9, 1, 9, 0, 3, 0.00,60.00,Wednesday
657,0.0
660,0.0
661,408.26295737865919
786,0.0
831,0.0
833,0.0
279,1112061.1761218834
2,9, 1, 9, 0, 4, 0.00,60.00,Wednesday
657,0.0
660,0.0
661,408.26295737865919
786,0.0
831,0.0
833,0.0
279,967878.1865417501
2,9, 1, 9, 0, 5, 0.00,60.00,Wednesday
657,0.0
660,0.0
661,408.26295737865919
786,0.0
831,0.0
833,0.0
279,844926.7754804543
2,9, 1, 9, 0, 6, 0.00,60.00,Wednesday
657,0.0
660,0.0